{
	 "smiles": "C[C@H](CCC(O)=O)[C@H]1CC[C@H]2[C@@H]3[C@H](O)C[C@@H]4C[C@H](O)CC[C@]4(C)[C@H]3C[C@H](O)[C@]12C", 
	 "Tm": 473.15, 
	 "num_atms": 69, 
	 "gaussian": { 
		 "optdone": 1, 
		 "sigma_profile": "yes", 
		 "theory": "DFT", 
		 "functional": "B3LYP", 
		 "basiset": "6-31G**", 
		 "properties": { 
			 "R2extent": 16934.2852, 
			 "electric_dipole_moment_norm": 2.91884924756, 
			 "electric_quadrupole_moment_norm": 21.9454286768, 
			 "total_energy": -1314.79215126, 
			 "HOMO_LUMO_gap": 0.26144, 
			 "cosmo_polarized_energy": -22.29, 
			 "cosmo_cavitation_energy": 58.92, 
			 "cosmo_dispersion_energy": -39.86, 
			 "cosmo_repulsion_energy": 2.94, 
			 "cosmo_total_nonelectrostatic_energy": 22.0, 
			 "SMD_solvation_energy": 9.38 
		},
		"coords": [
			{
				"x": -1.6583855987,
				"y": 4.4541920781,
				"z": -0.2756501657,
				"element": "C" 
			},
			{
				"x": -1.5742990713,
				"y": 3.2985269558,
				"z": -1.291162654,
				"element": "C" 
			},
			{
				"x": -2.7073291686,
				"y": 3.4007954506,
				"z": -2.3372337822,
				"element": "C" 
			},
			{
				"x": -2.5150698646,
				"y": 4.5681505571,
				"z": -3.3292542781,
				"element": "C" 
			},
			{
				"x": -3.6236360013,
				"y": 4.644331924,
				"z": -4.3540617072,
				"element": "C" 
			},
			{
				"x": -3.6367861843,
				"y": 3.5544273066,
				"z": -5.1668160496,
				"element": "O" 
			},
			{
				"x": -4.4299550529,
				"y": 5.5412096559,
				"z": -4.468292675,
				"element": "O" 
			},
			{
				"x": -1.4985795621,
				"y": 1.9409539953,
				"z": -0.532151973,
				"element": "C" 
			},
			{
				"x": -2.8352171551,
				"y": 1.2075650843,
				"z": -0.2272078147,
				"element": "C" 
			},
			{
				"x": -2.4621369357,
				"y": -0.2926111156,
				"z": -0.0184308601,
				"element": "C" 
			},
			{
				"x": -0.9192272019,
				"y": -0.3399581892,
				"z": -0.1179508963,
				"element": "C" 
			},
			{
				"x": -0.1554597089,
				"y": -1.6396662411,
				"z": -0.4602873404,
				"element": "C" 
			},
			{
				"x": -0.4828085863,
				"y": -2.9082614724,
				"z": 0.4022530211,
				"element": "C" 
			},
			{
				"x": -1.7107538557,
				"y": -2.8505082526,
				"z": 1.1271930655,
				"element": "O" 
			},
			{
				"x": 0.6042592126,
				"y": -3.1888560625,
				"z": 1.4306196656,
				"element": "C" 
			},
			{
				"x": 1.9762335297,
				"y": -3.4806663341,
				"z": 0.7901292335,
				"element": "C" 
			},
			{
				"x": 3.0674717476,
				"y": -3.3719038971,
				"z": 1.8698792603,
				"element": "C" 
			},
			{
				"x": 4.4580151925,
				"y": -3.8024118503,
				"z": 1.3835413667,
				"element": "C" 
			},
			{
				"x": 5.4843754239,
				"y": -3.2531560775,
				"z": 2.215912849,
				"element": "O" 
			},
			{
				"x": 4.7189227135,
				"y": -3.3044624405,
				"z": -0.0502016443,
				"element": "C" 
			},
			{
				"x": 3.7861535881,
				"y": -2.1532051472,
				"z": -0.4456201486,
				"element": "C" 
			},
			{
				"x": 2.2844754995,
				"y": -2.5661095344,
				"z": -0.4660653808,
				"element": "C" 
			},
			{
				"x": 2.0222154028,
				"y": -3.357346811,
				"z": -1.7673263082,
				"element": "C" 
			},
			{
				"x": 1.3717966557,
				"y": -1.3031371348,
				"z": -0.378879545,
				"element": "C" 
			},
			{
				"x": 1.7342006635,
				"y": -0.167536606,
				"z": -1.3571398021,
				"element": "C" 
			},
			{
				"x": 0.9119497316,
				"y": 1.1135308537,
				"z": -1.1046181177,
				"element": "C" 
			},
			{
				"x": 1.237491213,
				"y": 1.6824494549,
				"z": 0.16791334,
				"element": "O" 
			},
			{
				"x": -0.5992239538,
				"y": 0.8130732349,
				"z": -1.1237532445,
				"element": "C" 
			},
			{
				"x": -1.0097644387,
				"y": 0.4756116854,
				"z": -2.5748659278,
				"element": "C" 
			},
			{
				"x": -0.7935069496,
				"y": 4.4396892193,
				"z": 0.3947269278,
				"element": "H" 
			},
			{
				"x": -1.6840629712,
				"y": 5.4348525073,
				"z": -0.76129401,
				"element": "H" 
			},
			{
				"x": -2.5614449816,
				"y": 4.3668831534,
				"z": 0.3404164344,
				"element": "H" 
			},
			{
				"x": -0.6229528075,
				"y": 3.4159094542,
				"z": -1.8319308075,
				"element": "H" 
			},
			{
				"x": -2.7827422104,
				"y": 2.4784463699,
				"z": -2.9173392173,
				"element": "H" 
			},
			{
				"x": -3.6693397873,
				"y": 3.5266496148,
				"z": -1.8240701812,
				"element": "H" 
			},
			{
				"x": -2.4906336047,
				"y": 5.5327011082,
				"z": -2.8195409623,
				"element": "H" 
			},
			{
				"x": -1.5648252799,
				"y": 4.4367169518,
				"z": -3.8618570974,
				"element": "H" 
			},
			{
				"x": -4.3844856138,
				"y": 3.6853704059,
				"z": -5.7738029407,
				"element": "H" 
			},
			{
				"x": -1.0370018777,
				"y": 2.1722377181,
				"z": 0.4321016487,
				"element": "H" 
			},
			{
				"x": -3.3224320259,
				"y": 1.6269897843,
				"z": 0.6586091914,
				"element": "H" 
			},
			{
				"x": -3.549795642,
				"y": 1.3103604295,
				"z": -1.0485005168,
				"element": "H" 
			},
			{
				"x": -2.9296544804,
				"y": -0.9122412617,
				"z": -0.7959289888,
				"element": "H" 
			},
			{
				"x": -2.8077715714,
				"y": -0.667196598,
				"z": 0.9453409821,
				"element": "H" 
			},
			{
				"x": -0.5386494854,
				"y": 0.0026168699,
				"z": 0.8525829724,
				"element": "H" 
			},
			{
				"x": -0.3933442145,
				"y": -1.9013965471,
				"z": -1.4995550848,
				"element": "H" 
			},
			{
				"x": -0.5231026074,
				"y": -3.7723426201,
				"z": -0.2806138372,
				"element": "H" 
			},
			{
				"x": -2.4323202816,
				"y": -2.7733137465,
				"z": 0.4914524803,
				"element": "H" 
			},
			{
				"x": 0.2920540024,
				"y": -4.0403755206,
				"z": 2.0446651251,
				"element": "H" 
			},
			{
				"x": 0.6735665058,
				"y": -2.329993586,
				"z": 2.1104617423,
				"element": "H" 
			},
			{
				"x": 1.960321362,
				"y": -4.5223720257,
				"z": 0.4374603398,
				"element": "H" 
			},
			{
				"x": 3.1409568177,
				"y": -2.3299672918,
				"z": 2.2075437744,
				"element": "H" 
			},
			{
				"x": 2.7748707578,
				"y": -3.9617400949,
				"z": 2.7490447534,
				"element": "H" 
			},
			{
				"x": 4.5229250004,
				"y": -4.9028112279,
				"z": 1.399078684,
				"element": "H" 
			},
			{
				"x": 5.2892659758,
				"y": -3.5048414033,
				"z": 3.1284606654,
				"element": "H" 
			},
			{
				"x": 5.7659109597,
				"y": -2.9913695215,
				"z": -0.1107145962,
				"element": "H" 
			},
			{
				"x": 4.6013374434,
				"y": -4.1365088738,
				"z": -0.7533976926,
				"element": "H" 
			},
			{
				"x": 4.0761079659,
				"y": -1.7743049112,
				"z": -1.4320379299,
				"element": "H" 
			},
			{
				"x": 3.9364881766,
				"y": -1.3238826757,
				"z": 0.2574929395,
				"element": "H" 
			},
			{
				"x": 2.1668078345,
				"y": -2.7301484128,
				"z": -2.6538048829,
				"element": "H" 
			},
			{
				"x": 1.0088976294,
				"y": -3.7658365762,
				"z": -1.8107155279,
				"element": "H" 
			},
			{
				"x": 2.7099420146,
				"y": -4.2049440812,
				"z": -1.8535990964,
				"element": "H" 
			},
			{
				"x": 1.5417053054,
				"y": -0.8815920784,
				"z": 0.6214633001,
				"element": "H" 
			},
			{
				"x": 1.6018159089,
				"y": -0.4861332775,
				"z": -2.3973366894,
				"element": "H" 
			},
			{
				"x": 2.7953558794,
				"y": 0.0925417035,
				"z": -1.2602097683,
				"element": "H" 
			},
			{
				"x": 1.1475808366,
				"y": 1.84235319,
				"z": -1.8985060939,
				"element": "H" 
			},
			{
				"x": 2.1939984561,
				"y": 1.8114770248,
				"z": 0.1978280952,
				"element": "H" 
			},
			{
				"x": -0.7892673759,
				"y": 1.3158624446,
				"z": -3.2414320415,
				"element": "H" 
			},
			{
				"x": -2.0785014865,
				"y": 0.2635795446,
				"z": -2.6580507356,
				"element": "H" 
			},
			{
				"x": -0.4813018117,
				"y": -0.3924462322,
				"z": -2.974862844,
				"element": "H" 
			}
		],
		 "valence_orbital": [ 
			{
				"type": "occ",
				"energy": -0.2785,
				"method": "rhf"
			},
			{
				"type": "occ",
				"energy": -0.26604,
				"method": "rhf"
			},
			{
				"type": "occ",
				"energy": -0.26368,
				"method": "rhf"
			},
			{
				"type": "occ",
				"energy": -0.25724,
				"method": "rhf"
			},
			{
				"type": "occ",
				"energy": -0.24992,
				"method": "rhf"
			},
			{
				"type": "unocc",
				"energy": 0.01152,
				"method": "rhf"
			},
			{
				"type": "unocc",
				"energy": 0.05972,
				"method": "rhf"
			},
			{
				"type": "unocc",
				"energy": 0.0665,
				"method": "rhf"
			},
			{
				"type": "unocc",
				"energy": 0.0723,
				"method": "rhf"
			},
			{
				"type": "unocc",
				"energy": 0.07495,
				"method": "rhf"
			}
		],
		"cosmo_sigma_profile": { 
			"-0.025": 0.0,
			"-0.024": 0.0,
			"-0.023": 0.0,
			"-0.022": 0.0,
			"-0.021": 0.0,
			"-0.02": 0.0,
			"-0.019": 0.0,
			"-0.018": 0.257172862134,
			"-0.017": 1.15026592967,
			"-0.016": 0.587776385459,
			"-0.015": 1.64220419717,
			"-0.014": 2.65015034386,
			"-0.013": 3.31062488525,
			"-0.012": 3.63193973082,
			"-0.011": 2.82201201375,
			"-0.01": 4.25680984133,
			"-0.009": 3.33686741476,
			"-0.008": 3.22423552353,
			"-0.007": 3.7966722644,
			"-0.006": 5.29602174825,
			"-0.005": 8.33324219384,
			"-0.004": 15.7980279598,
			"-0.003": 43.4918875743,
			"-0.002": 74.7731273937,
			"-0.001": 65.2947533496,
			"0.0": 52.6628482842,
			"0.001": 42.8853008209,
			"0.002": 21.9098204346,
			"0.003": 8.92217218816,
			"0.004": 8.30146044471,
			"0.005": 7.87926192804,
			"0.006": 6.94154911814,
			"0.007": 7.78031517615,
			"0.008": 5.89594822188,
			"0.009": 8.21253404752,
			"0.01": 6.84554795505,
			"0.011": 6.3411298059,
			"0.012": 8.40662516868,
			"0.013": 5.55731474137,
			"0.014": 4.13645801553,
			"0.015": 1.67809439325,
			"0.016": 0.0147635997938,
			"0.017": 0.235374696097,
			"0.018": 0.0571860323825,
			"0.019": 0.256411284092,
			"0.02": 0.159220823908,
			"0.021": 0.0300642528457,
			"0.022": 0.25849765476,
			"0.023": 0.158417416394,
			"0.024": 0.183637623849,
			"0.025": 0.0371016931508
		}
	}
}
